<?xml version="1.0"?>
<VTKFile type="UnstructuredGrid" version="0.1" byte_order="LittleEndian">
 <UnstructuredGrid>
  <Piece Name ="TAH_basic2_pos" NumberOfPoints="916" NumberOfCells="0">
   <Points>
    <DataArray Name="Position" type="Float32"  NumberOfComponents="3" Format="ascii">
    0.07 -234.98 -1271.04 -4.54 -227.63 -1262.20 -5.39 -227.31 -1253.33 -7.22 -223.39 -1247.22 -8.80 -220.41 -1238.66 -10.63 -216.55 -1231.41 -12.25 -212.10 -1224.70 -12.44 -213.75 -1217.01 -14.20 -210.08 -1210.45 -16.27 -203.68 -1205.02 -17.12 -204.30 -1196.30 -18.68 -201.09 -1188.69 -19.95 -195.44 -1182.29 -18.15 -195.44 -1174.35 0.74 -226.68 -1277.35 -2.79 -227.35 -1270.37 -4.44 -219.63 -1266.62 -6.14 -220.56 -1258.16 -7.39 -214.44 -1252.35 -8.90 -214.84 -1244.81 -10.40 -210.33 -1238.19 -11.75 -206.46 -1230.95 -13.49 -203.91 -1222.60 -14.87 -203.42 -1214.83 -16.16 -196.62 -1208.23 -18.13 -196.06 -1199.17 -19.61 -193.07 -1191.52 -19.89 -187.53 -1183.39 -17.94 -187.21 -1175.27 -1.82 -219.24 -1274.35 -2.72 -211.39 -1267.70 -5.21 -212.15 -1260.34 -5.04 -205.37 -1254.74 -7.71 -205.87 -1247.35 -8.95 -202.47 -1240.24 -10.51 -198.17 -1231.17 -11.53 -194.84 -1224.63 -13.95 -195.00 -1216.74 -14.69 -189.13 -1209.16 -16.91 -187.62 -1200.88 -18.45 -184.98 -1193.02 -18.03 -180.42 -1186.71 -16.93 -180.26 -1178.21 1.68 -213.56 -1278.42 0.84 -207.37 -1272.84 -1.69 -203.98 -1262.80 -1.20 -198.12 -1256.10 -4.38 -197.88 -1248.49 -6.92 -195.28 -1238.52 -6.31 -189.71 -1232.82 -7.57 -186.81 -1225.87 -10.82 -187.65 -1218.88 -11.02 -182.86 -1212.32 -12.20 -179.62 -1204.97 -14.50 -178.71 -1198.13 -14.11 -174.43 -1192.42 5.25 -244.91 -1259.38 0.62 -239.32 -1257.71 2.18 -240.12 -1248.74 2.34 -238.83 -1240.67 -2.64 -232.34 -1235.39 -3.15 -230.58 -1227.59 -5.74 -226.33 -1220.08 -4.07 -226.81 -1210.96 -6.38 -222.96 -1203.09 -10.64 -217.17 -1198.30 -9.81 -216.92 -1189.61 -12.16 -212.97 -1181.65 -13.53 -209.16 -1174.58 6.92 -241.01 -1274.73 2.95 -241.80 -1267.60 -1.73 -234.72 -1263.13 -2.51 -233.99 -1253.20 -3.00 -232.70 -1244.97 -5.87 -227.30 -1239.87 -7.26 -224.73 -1230.33 -9.50 -220.16 -1223.53 -9.21 -220.65 -1214.37 -10.92 -217.44 -1207.36 -14.11 -211.09 -1201.69 -14.24 -211.11 -1192.66 -16.28 -207.24 -1185.16 -17.76 -202.79 -1178.44 -14.85 -201.94 -1169.73 4.07 -233.77 -1278.10 -14.18 -192.00 -1167.98 7.38 -227.09 -1282.91 -12.27 -184.23 -1168.77 3.81 -220.01 -1282.24 -12.01 -176.86 -1172.93 8.73 -213.90 -1285.18 5.67 -207.16 -1280.30 -2.81 -191.60 -1243.50 -14.93 -173.52 -1183.62 -10.47 -170.92 -1177.41 6.83 -199.79 -1275.71 3.00 -200.76 -1269.20 3.34 -195.95 -1263.36 3.43 -191.43 -1257.16 1.31 -189.41 -1249.67 1.95 -183.93 -1243.22 -1.59 -184.22 -1235.90 -2.19 -180.18 -1228.68 -5.54 -179.69 -1220.52 -6.49 -176.33 -1213.56 -7.91 -173.09 -1205.57 -8.25 -169.43 -1198.93 -9.76 -167.95 -1191.07 -8.33 -166.39 -1183.67 9.60 -248.10 -1265.65 11.92 -249.58 -1256.85 7.88 -245.89 -1250.99 8.56 -244.28 -1243.24 3.50 -238.20 -1233.03 2.71 -235.83 -1225.36 -0.01 -232.02 -1218.59 1.80 -230.97 -1209.10 -0.42 -227.61 -1201.55 -4.23 -223.17 -1194.46 -4.32 -221.23 -1186.44 -6.73 -217.78 -1179.21 -8.45 -213.27 -1170.61 16.02 -241.56 -1278.38 12.02 -246.18 -1272.70 -9.63 -206.08 -1165.80 -10.10 -197.37 -1163.82 11.85 -235.70 -1281.06 -6.51 -187.98 -1164.01 14.53 -229.54 -1284.65 12.83 -221.09 -1286.37 -5.77 -179.21 -1167.32 15.47 -213.08 -1287.80 11.15 -203.59 -1283.76 -4.76 -170.76 -1171.51 17.39 -204.75 -1288.22 -3.24 -163.26 -1177.89 16.60 -195.72 -1285.22 12.08 -195.19 -1279.80 11.49 -190.65 -1273.45 8.20 -190.76 -1266.53 9.75 -184.69 -1261.26 6.52 -184.25 -1253.63 6.94 -179.03 -1247.09 3.79 -177.48 -1237.95 3.02 -173.71 -1230.80 0.16 -172.84 -1223.21 -1.39 -169.94 -1215.52 -2.16 -166.37 -1208.48 -2.61 -162.28 -1200.82 -4.92 -161.90 -1193.15 -2.83 -158.88 -1185.82 19.32 -187.33 -1283.47 16.86 -185.45 -1277.43 14.40 -183.20 -1269.21 14.73 -177.70 -1262.12 11.45 -177.30 -1254.43 12.40 -171.40 -1248.08 8.84 -171.96 -1241.09 7.56 -168.03 -1232.59 3.72 -166.13 -1221.32 4.54 -160.77 -1215.31 2.15 -159.41 -1207.80 3.70 -153.80 -1202.24 0.24 -155.41 -1194.62 17.40 -252.33 -1261.27 16.83 -250.98 -1251.34 15.52 -248.23 -1244.04 10.38 -243.32 -1235.88 10.36 -241.14 -1228.15 9.50 -238.61 -1220.87 6.33 -235.04 -1214.37 9.00 -233.76 -1206.35 6.58 -230.47 -1198.49 2.89 -227.01 -1192.30 3.36 -225.05 -1184.80 0.98 -221.78 -1177.26 -2.49 -218.00 -1171.37 1.97 -215.69 -1164.81 18.12 -250.83 -1268.94 -3.26 -210.59 -1163.37 -2.70 -203.10 -1159.87 21.72 -246.90 -1274.72 -2.76 -195.27 -1160.50 22.68 -239.08 -1280.31 1.70 -189.44 -1161.33 22.41 -231.74 -1283.40 0.92 -181.65 -1164.49 20.72 -223.80 -1286.49 23.01 -216.36 -1288.61 1.10 -173.25 -1167.52 23.67 -208.67 -1289.96 1.36 -163.83 -1172.40 22.99 -199.12 -1289.86 1.67 -156.55 -1179.88 23.21 -190.74 -1288.62 8.29 -162.63 -1226.37 2.60 -151.53 -1187.95 7.01 -148.93 -1182.00 26.69 -182.61 -1288.26 24.35 -178.57 -1282.91 20.93 -178.37 -1276.45 19.03 -176.24 -1269.35 19.53 -170.60 -1262.43 16.62 -169.95 -1255.20 17.48 -164.26 -1248.95 13.40 -165.32 -1241.54 12.32 -162.19 -1234.64 13.11 -156.30 -1227.89 9.60 -155.93 -1219.54 7.88 -153.20 -1211.63 8.28 -148.06 -1204.65 5.57 -148.03 -1196.39 8.02 -144.27 -1189.87 32.79 -253.45 -1259.35 24.55 -254.10 -1257.24 24.26 -252.31 -1249.48 24.02 -248.98 -1240.82 18.17 -246.29 -1236.09 18.29 -243.82 -1228.71 18.68 -241.10 -1220.80 15.42 -238.20 -1214.38 17.19 -235.89 -1207.47 14.74 -232.76 -1199.44 12.26 -229.61 -1191.34 11.45 -226.62 -1183.52 9.15 -223.68 -1175.96 6.75 -220.30 -1168.54 9.53 -213.40 -1160.49 29.04 -249.83 -1270.79 25.86 -252.98 -1264.92 4.93 -208.65 -1158.51 29.49 -243.86 -1276.61 5.29 -200.49 -1157.30 31.88 -236.85 -1279.52 8.22 -193.32 -1158.52 30.25 -229.58 -1282.71 9.40 -184.39 -1161.80 29.42 -221.86 -1285.90 8.37 -176.63 -1164.63 32.89 -214.77 -1287.97 7.34 -168.02 -1168.05 31.24 -207.51 -1290.55 8.92 -160.61 -1170.88 30.12 -199.13 -1291.89 7.84 -154.58 -1175.31 36.65 -195.10 -1293.35 30.24 -190.23 -1292.16 13.83 -148.63 -1175.62 33.63 -182.33 -1293.24 12.41 -142.59 -1182.33 33.25 -174.91 -1290.88 29.79 -172.17 -1285.41 27.56 -169.81 -1278.59 23.99 -170.17 -1271.45 25.39 -163.72 -1265.35 22.44 -162.85 -1257.75 23.06 -157.43 -1251.39 19.50 -157.62 -1243.88 17.63 -155.29 -1236.43 17.83 -149.40 -1228.39 14.12 -149.04 -1219.61 13.20 -145.64 -1212.53 13.49 -140.82 -1205.86 10.95 -140.90 -1197.61 13.33 -137.30 -1189.16 34.71 -165.28 -1286.23 32.90 -162.40 -1279.60 28.97 -163.29 -1272.45 29.93 -156.73 -1265.25 27.42 -155.49 -1258.08 28.02 -149.49 -1250.90 24.28 -150.39 -1244.01 22.18 -148.55 -1236.77 22.59 -143.33 -1230.20 19.46 -142.85 -1222.56 18.34 -139.64 -1215.36 19.41 -134.26 -1209.93 16.32 -134.20 -1202.19 16.10 -132.82 -1194.20 33.12 -252.74 -1252.00 30.97 -250.38 -1244.29 33.69 -246.80 -1237.53 26.88 -245.88 -1232.86 27.08 -243.15 -1225.90 26.52 -239.84 -1217.94 25.54 -236.97 -1210.87 24.29 -233.84 -1203.04 21.66 -231.01 -1195.12 20.40 -227.86 -1187.14 19.75 -224.78 -1179.67 16.74 -222.22 -1172.23 14.38 -218.44 -1165.11 17.16 -212.20 -1159.30 36.48 -251.87 -1265.36 12.48 -204.11 -1156.32 36.75 -246.86 -1272.41 15.22 -195.42 -1156.65 39.25 -240.32 -1276.28 39.66 -231.97 -1279.82 16.08 -186.32 -1159.48 37.29 -224.39 -1283.29 16.32 -176.64 -1162.79 40.87 -217.24 -1285.37 14.80 -169.02 -1165.96 40.73 -209.52 -1288.44 18.45 -162.00 -1167.88 39.04 -202.51 -1291.34 16.37 -156.03 -1170.78 44.67 -193.67 -1293.69 21.02 -149.79 -1172.24 39.53 -187.25 -1294.85 18.67 -141.56 -1177.21 42.65 -180.15 -1296.16 39.93 -173.09 -1294.80 18.32 -134.66 -1183.72 39.41 -165.94 -1292.15 33.86 -156.11 -1272.84 20.91 -126.18 -1192.76 22.90 -127.58 -1186.15 44.40 -161.06 -1294.42 39.82 -158.22 -1287.48 37.65 -155.59 -1280.21 38.89 -149.40 -1274.12 34.60 -150.43 -1266.41 31.98 -148.22 -1257.67 32.61 -142.33 -1250.72 29.00 -143.02 -1243.84 27.36 -140.34 -1236.43 27.22 -135.88 -1229.76 24.20 -135.35 -1222.30 24.34 -130.89 -1216.20 23.32 -127.37 -1208.72 20.75 -126.97 -1200.72 25.68 -119.68 -1195.12 43.07 -151.38 -1285.33 44.12 -145.83 -1279.30 41.63 -142.84 -1270.02 36.68 -144.15 -1261.97 37.72 -137.77 -1254.75 35.39 -135.59 -1246.81 32.29 -134.67 -1239.05 33.37 -129.16 -1233.13 29.76 -128.95 -1225.33 29.48 -124.54 -1218.18 28.72 -121.10 -1211.44 25.89 -120.33 -1203.60 41.75 -251.27 -1254.60 39.95 -249.44 -1247.06 40.94 -245.90 -1239.65 36.60 -243.20 -1230.96 34.38 -240.35 -1223.28 34.79 -236.91 -1215.83 33.94 -234.03 -1208.88 31.71 -231.53 -1201.89 28.83 -228.77 -1193.89 29.34 -225.39 -1186.55 29.11 -221.91 -1178.55 25.12 -220.20 -1172.21 22.63 -216.98 -1165.08 44.23 -250.40 -1261.17 25.61 -211.14 -1159.20 20.41 -204.55 -1155.96 43.84 -247.13 -1268.61 22.32 -194.96 -1155.46 46.64 -240.67 -1274.02 23.80 -186.26 -1157.59 47.11 -232.93 -1277.85 22.97 -178.91 -1160.49 45.78 -224.38 -1281.53 49.12 -215.84 -1284.21 22.90 -169.06 -1164.25 49.25 -208.46 -1287.10 26.42 -160.80 -1166.66 47.66 -201.07 -1290.36 27.76 -154.05 -1168.98 52.63 -193.92 -1292.19 27.84 -146.06 -1172.10 48.84 -185.69 -1295.74 25.64 -139.03 -1175.65 52.47 -178.54 -1297.63 25.43 -132.40 -1179.60 47.36 -172.59 -1297.54 29.75 -124.26 -1182.35 49.72 -165.95 -1298.42 28.82 -119.06 -1188.53 50.68 -157.67 -1298.05 47.27 -152.20 -1292.92 41.65 -138.23 -1262.99 34.51 -122.22 -1224.63 30.44 -114.38 -1202.36 31.51 -112.86 -1194.87 54.20 -148.53 -1295.35 48.66 -145.78 -1287.01 49.20 -140.58 -1279.17 46.94 -138.13 -1271.80 47.53 -133.26 -1264.04 43.31 -132.41 -1256.67 41.27 -129.94 -1249.21 38.64 -128.30 -1241.90 38.28 -124.25 -1234.73 40.35 -119.16 -1228.87 36.57 -116.67 -1219.00 33.24 -115.71 -1211.76 35.87 -110.04 -1205.75 52.32 -247.71 -1259.69 49.27 -248.36 -1251.50 47.81 -245.93 -1244.00 46.92 -242.38 -1235.55 43.45 -240.23 -1228.65 42.00 -237.15 -1220.89 43.84 -233.55 -1214.05 41.35 -231.04 -1206.88 38.05 -228.30 -1198.67 37.42 -225.20 -1191.33 36.09 -221.71 -1182.61 33.64 -217.84 -1172.33 31.06 -214.64 -1164.68 32.45 -207.16 -1157.87 51.11 -245.29 -1267.40 58.78 -244.17 -1264.98 28.34 -200.14 -1154.60 54.82 -239.59 -1272.34 29.88 -189.88 -1155.25 55.34 -2
[...]
   <PointData  Vectors="vector">
    <DataArray Name="Principal stress" type="Float32" Format="ascii">
    0.001 0.001 0.001 0.000 0.000 0.000 0.001 0.001 0.001 0.001 0.002 0.002 0.002 -0.007 0.001 0.001 0.001 0.001 0.001 0.001 0.001 0.001 0.001 0.001 0.000 0.001 0.001 0.002 -0.003 0.001 0.001 0.001 0.001 0.001 0.001 0.001 0.001 0.000 0.000 0.000 0.001 0.001 -0.001 0.001 0.001 0.001 0.002 0.002 0.002 0.001 0.001 0.000 0.000 0.000 0.001 0.001 0.001 0.001 0.001 0.001 0.000 0.000 0.001 0.001 0.002 0.002 0.002 0.003 0.003 0.001 0.001 0.001 0.001 0.000 0.000 0.000 0.001 0.001 0.002 0.001 0.002 0.002 0.003 0.004 0.001 0.004 0.001 -0.002 0.001 -0.002 0.001 0.001 0.002 0.004 0.002 0.001 0.001 0.001 0.002 0.002 0.003 0.002 0.001 0.000 -0.000 -0.000 -0.004 -0.012 -0.032 0.001 0.001 0.001 0.001 0.000 0.000 0.001 0.001 0.001 0.002 0.002 0.002 0.003 0.001 0.001 0.002 0.002 0.001 0.002 0.001 0.001 -0.000 0.001 0.001 0.002 0.001 -0.021 0.001 0.001 0.001 0.001 0.002 0.002 0.003 0.002 0.001 0.000 -0.000 0.001 -0.005 -0.014 -0.033 0.001 0.000 0.001 0.002 0.003 0.003 0.002 0.001 -0.000 0.000 0.002 -0.010 -0.032 0.001 0.001 0.001 0.001 0.001 0.001 0.001 0.001 0.001 0.002 0.002 0.002 0.002 0.001 0.001 0.002 0.002 0.001 0.001 0.002 -0.012 0.001 -0.019 0.001 0.001 -0.002 0.001 -0.003 0.001 -0.024 0.001 0.000 -0.034 -0.010 0.000 0.000 0.001 0.001 0.002 0.003 0.002 0.002 0.001 0.000 0.000 0.001 0.002 -0.017 -0.032 0.002 0.001 0.001 0.001 0.001 0.001 0.001 0.001 0.001 0.001 0.002 0.002 0.002 0.002 0.001 0.002 0.001 0.001 0.002 0.001 0.002 -0.003 0.002 -0.017 0.002 -0.007 0.002 0.002 0.001 0.000 0.001 -0.003 0.001 0.000 0.005 0.000 -0.022 0.000 0.000 0.000 0.001 0.002 0.002 0.003 0.002 0.001 0.000 0.000 0.001 0.003 -0.022 0.005 0.001 0.001 0.001 0.002 0.003 0.003 0.002 0.001 0.001 0.001 0.000 0.000 0.001 -0.012 0.001 0.001 0.002 0.002 0.002 0.002 0.002 0.002 0.002 0.003 0.003 0.003 0.002 0.002 0.002 -0.001 0.002 -0.004 0.003 0.003 -0.016 0.002 0.005 0.002 0.002 0.002 0.002 0.001 0.001 0.001 0.004 0.001 0.005 0.000 0.000 -0.003 0.001 0.002 0.002 0.002 0.002 0.001 0.002 0.002 0.002 0.003 0.003 0.002 0.002 0.001 0.002 0.002 0.001 0.002 0.002 0.002 0.002 0.002 0.003 0.003 0.003 0.002 0.002 0.002 0.002 0.002 0.002 0.002 0.002 0.002 0.002 0.002 0.003 0.003 0.003 0.003 0.004 0.005 0.005 0.004 0.002 0.004 0.000 0.002 0.003 0.003 0.001 0.003 0.003 0.003 0.003 0.002 0.002 0.005 0.002 0.005 0.002 0.005 0.001 0.005 0.001 0.003 0.001 0.004 0.002 0.003 0.002 0.002 0.003 0.002 0.002 0.003 -0.001 0.001 0.002 0.002 0.003 0.003 0.004 0.004 0.003 0.003 0.003 0.002 0.003 0.003 0.002 0.002 0.003 0.003 0.003 0.003 0.004 0.004 0.004 0.005 0.006 0.005 0.004 0.003 0.003 0.003 0.003 0.004 0.003 0.003 0.003 0.003 0.004 0.003 0.006 0.002 0.002 0.006 0.001 0.006 0.002 0.005 0.002 0.005 0.003 0.003 0.003 0.002 0.003 -0.010 -0.008 -0.001 0.004 0.002 0.003 0.003 0.004 0.004 0.005 0.004 0.003 0.003 0.003 0.003 0.003 0.003 0.003 0.003 0.003 0.003 0.004 0.004 0.004 0.005 0.005 0.005 0.005 0.005 0.003 0.004 0.003 0.005 0.003 0.005 0.003 0.003 0.006 0.003 0.006 0.002 0.006 0.002 0.002 0.006 0.002 0.006 0.002 0.004 0.003 0.003 0.003 0.002 -0.021 -0.015 0.003 0.002 -0.030 -0.020 -0.022 0.003 0.003 0.003 0.004 0.005 0.005 0.005 0.004 0.003 0.003 0.003 0.003 0.003 0.003 0.003 0.004 0.004 0.004 0.005 0.005 0.004 0.004 0.003 0.003 0.004 0.004 0.004 0.003 0.005 0.003 0.006 0.003 0.003 0.006 0.003 0.006 0.002 0.006 0.002 0.006 0.002 0.005 0.002 0.005 0.002 0.003 0.003 0.002 0.002 0.002 -0.009 0.002 0.002 -0.019 -0.026 -0.004 0.003 0.003 0.003 0.004 0.005 0.005 0.005 0.005 0.004 0.003 0.002 0.002 0.002 0.003 0.003 0.003 0.003 0.003 0.003 0.003 0.004 0.004 0.003 0.003 0.003 0.003 0.003 0.002 0.004 0.002 0.004 0.002 0.005 0.002 0.006 0.002 0.006 0.002 0.005 0.002 0.005 0.002 0.004 0.002 0.003 0.002 0.002 0.001 -0.017 0.001 -0.030 -0.032 -0.009 0.003 0.003 0.003 0.003 0.004 0.005 0.004 0.004 0.003 0.002 0.002 0.002 0.002 0.002 0.002 0.003 0.003 0.003 0.003 0.003 0.003 0.003 0.002 0.002 0.002 0.003 0.003 0.002 0.003 0.002 0.004 0.002 0.005 0.002 0.006 0.002 0.005 0.001 0.005 0.001 0.004 0.001 0.003 0.002 0.002 0.002 0.001 0.003 0.001 0.001 -0.015 -0.014 -0.021 0.002 0.003 0.003 0.002 0.002 0.003 0.004 0.004 0.004 0.003 0.002 0.002 0.002 0.002 0.002 0.002 0.002 0.002 0.003 0.003 0.003 0.003 0.003 0.003 0.003 0.002 0.002 0.002 0.002 0.003 0.003 0.002 0.004 0.001 0.001 0.004 0.001 0.005 0.001 0.004 0.001 0.004 0.001 0.003 0.002 0.002 0.002 0.003 0.001 0.001 0.001 0.004 -0.015 0.001 0.003 0.002 0.002 0.001 0.001 0.002 0.003 0.003 0.003 0.002 0.002 -0.003 0.003 0.003 0.002 0.001 0.001 0.002 0.003 0.003 0.003 0.003 0.002 0.001 0.002 0.002 0.002 0.002 0.002 0.002 0.003 0.003 0.003 0.003 0.003 0.002 0.002 0.002 0.001 0.001 0.003 0.003 0.001 0.003 0.001 0.001 0.004 0.000 0.004 0.001 0.003 0.001 0.003 0.003 0.001 0.001 0.001 0.001 0.001 0.001 0.001 0.001 0.001 0.002 0.003 0.003 0.003 0.003 0.002 0.002 0.001 0.002 0.002 0.001 0.001 0.001 0.001 0.002 0.003 0.003 0.003 0.003 0.002 0.001 0.001 0.001 0.001 0.001 0.001 0.002 0.002 0.002 0.002 0.002 0.002 0.002 0.001 0.002 0.001 0.002 0.002 0.002 0.000 0.001 0.002 0.000 0.002 0.003 0.000 0.000 0.003 0.003 0.000 0.000 0.000 0.000 0.000 0.000 0.000 0.000 0.001 0.002 0.002 0.003 0.003 0.003 0.003 0.001 0.001 0.001 0.001 0.001 0.000 0.000 0.001 0.002 0.003 0.003 0.003 0.003 0.001 0.001 0.001 0.000 0.000 0.000 0.001 0.001 0.001 0.001 0.001 0.001 0.001 0.001 0.001 0.000 0.000 0.000 0.000 0.000 0.000 0.000 0.001 0.001 0.001 0.001 0.001 0.001 0.001 0.001 0.000 0.000 0.000 0.000 0.000 0.000 0.000 0.001 0.001 0.001 0.002 0.002 0.002 0.002 0.000 0.000 0.000 0.000 0.000 0.000 0.001 0.001 0.002 0.002 0.003 0.002 
    </DataArray>
    <DataArray Name="von Mises stress" type="Float32" Format="ascii">
    0.002 0.002 0.002 0.001 0.001 0.001 0.001 0.002 0.003 0.004 0.006 0.007 0.008 0.014 0.002 0.002 0.002 0.002 0.002 0.002 0.001 0.001 0.001 0.002 0.004 0.006 0.007 0.008 0.011 0.002 0.003 0.002 0.003 0.002 0.002 0.001 0.002 0.003 0.005 0.006 0.006 0.007 0.008 0.003 0.003 0.003 0.004 0.003 0.002 0.002 0.003 0.003 0.005 0.007 0.009 0.016 0.001 0.001 0.001 0.001 0.001 0.002 0.002 0.003 0.004 0.005 0.005 0.005 0.005 0.002 0.002 0.002 0.001 0.001 0.001 0.001 0.002 0.003 0.003 0.004 0.005 0.006 0.007 0.007 0.002 0.007 0.002 0.005 0.003 0.008 0.003 0.003 0.003 0.018 0.024 0.004 0.004 0.004 0.004 0.004 0.004 0.003 0.003 0.004 0.006 0.011 0.020 0.035 0.053 0.002 0.001 0.001 0.001 0.002 0.002 0.003 0.004 0.005 0.005 0.005 0.005 0.004 0.002 0.002 0.005 0.007 0.002 0.016 0.003 0.003 0.015 0.004 0.004 0.021 0.005 0.041 0.006 0.005 0.005 0.005 0.005 0.005 0.005 0.004 0.004 0.004 0.006 0.012 0.024 0.035 0.048 0.006 0.006 0.006 0.006 0.005 0.005 0.004 0.004 0.005 0.008 0.015 0.025 0.036 0.001 0.001 0.002 0.002 0.003 0.003 0.004 0.005 0.005 0.005 0.005 0.005 0.004 0.004 0.002 0.004 0.007 0.002 0.017 0.003 0.039 0.003 0.037 0.004 0.005 0.020 0.006 0.031 0.007 0.041 0.007 0.004 0.041 0.029 0.008 0.008 0.007 0.006 0.006 0.006 0.005 0.004 0.004 0.004 0.006 0.010 0.018 0.027 0.037 0.002 0.002 0.002 0.002 0.002 0.003 0.004 0.005 0.005 0.006 0.006 0.006 0.005 0.004 0.003 0.002 0.002 0.004 0.003 0.013 0.004 0.030 0.004 0.043 0.005 0.028 0.006 0.020 0.007 0.025 0.008 0.033 0.010 0.009 0.026 0.010 0.035 0.011 0.010 0.009 0.007 0.007 0.006 0.006 0.005 0.004 0.003 0.005 0.008 0.016 0.033 0.024 0.012 0.011 0.009 0.008 0.007 0.005 0.004 0.003 0.002 0.003 0.006 0.008 0.016 0.026 0.002 0.003 0.004 0.004 0.004 0.005 0.006 0.007 0.007 0.007 0.007 0.006 0.004 0.004 0.002 0.008 0.003 0.022 0.004 0.005 0.035 0.006 0.017 0.007 0.014 0.008 0.016 0.009 0.021 0.011 0.019 0.011 0.023 0.013 0.013 0.025 0.014 0.010 0.013 0.014 0.016 0.015 0.013 0.012 0.009 0.007 0.005 0.004 0.003 0.002 0.003 0.004 0.006 0.010 0.006 0.016 0.015 0.011 0.008 0.005 0.004 0.002 0.002 0.002 0.002 0.003 0.004 0.003 0.003 0.004 0.005 0.006 0.007 0.007 0.008 0.008 0.009 0.009 0.008 0.006 0.003 0.006 0.006 0.003 0.013 0.004 0.017 0.005 0.013 0.006 0.008 0.012 0.009 0.015 0.010 0.016 0.012 0.016 0.013 0.017 0.015 0.016 0.015 0.010 0.017 0.006 0.019 0.020 0.007 0.001 0.002 0.003 0.026 0.022 0.018 0.012 0.007 0.005 0.004 0.003 0.002 0.002 0.002 0.002 0.002 0.004 0.004 0.004 0.006 0.006 0.007 0.008 0.009 0.009 0.010 0.010 0.009 0.008 0.007 0.004 0.004 0.008 0.004 0.010 0.005 0.007 0.011 0.008 0.012 0.010 0.013 0.011 0.013 0.014 0.014 0.014 0.016 0.013 0.017 0.008 0.019 0.004 0.023 0.025 0.002 0.035 0.029 0.028 0.023 0.012 0.006 0.004 0.004 0.003 0.003 0.003 0.002 0.002 0.002 0.002 0.004 0.005 0.006 0.007 0.008 0.009 0.009 0.010 0.010 0.010 0.010 0.009 0.008 0.007 0.004 0.008 0.005 0.008 0.006 0.010 0.007 0.008 0.011 0.010 0.011 0.011 0.013 0.013 0.015 0.012 0.017 0.011 0.019 0.007 0.021 0.004 0.032 0.002 0.049 0.039 0.002 0.002 0.043 0.036 0.038 0.020 0.008 0.004 0.003 0.004 0.004 0.004 0.003 0.002 0.002 0.005 0.007 0.008 0.008 0.009 0.010 0.010 0.010 0.010 0.009 0.008 0.007 0.004 0.005 0.010 0.006 0.007 0.004 0.007 0.005 0.009 0.006 0.007 0.009 0.009 0.009 0.011 0.011 0.012 0.010 0.014 0.010 0.016 0.009 0.019 0.006 0.021 0.004 0.027 0.002 0.040 0.001 0.001 0.032 0.036 0.031 0.018 0.006 0.003 0.003 0.004 0.004 0.004 0.003 0.003 0.002 0.002 0.004 0.005 0.006 0.007 0.008 0.008 0.009 0.009 0.009 0.009 0.009 0.008 0.006 0.005 0.004 0.004 0.004 0.006 0.005 0.005 0.005 0.006 0.007 0.008 0.009 0.009 0.010 0.008 0.012 0.007 0.014 0.007 0.018 0.019 0.003 0.029 0.002 0.034 0.001 0.044 0.041 0.035 0.015 0.005 0.002 0.002 0.004 0.004 0.004 0.003 0.002 0.002 0.004 0.005 0.006 0.007 0.008 0.008 0.009 0.009 0.008 0.008 0.007 0.005 0.004 0.004 0.004 0.003 0.004 0.004 0.004 0.004 0.005 0.005 0.006 0.007 0.007 0.008 0.007 0.009 0.006 0.011 0.005 0.013 0.005 0.016 0.003 0.017 0.002 0.024 0.001 0.001 0.032 0.035 0.044 0.025 0.017 0.006 0.002 0.002 0.003 0.003 0.003 0.003 0.003 0.002 0.001 0.004 0.005 0.005 0.006 0.007 0.008 0.008 0.008 0.008 0.008 0.007 0.006 0.005 0.004 0.003 0.004 0.004 0.003 0.004 0.004 0.005 0.004 0.005 0.005 0.006 0.006 0.007 0.005 0.009 0.004 0.011 0.004 0.014 0.013 0.002 0.018 0.020 0.002 0.002 0.025 0.031 0.023 0.014 0.010 0.005 0.001 0.001 0.002 0.003 0.003 0.003 0.002 0.002 0.030 0.018 0.011 0.005 0.002 0.001 0.002 0.003 0.003 0.003 0.003 0.002 0.003 0.004 0.005 0.006 0.007 0.007 0.007 0.008 0.007 0.007 0.006 0.005 0.004 0.003 0.003 0.003 0.006 0.003 0.004 0.003 0.004 0.003 0.004 0.005 0.004 0.004 0.006 0.004 0.008 0.003 0.003 0.010 0.009 0.011 0.008 0.007 0.004 0.002 0.001 0.001 0.002 0.003 0.003 0.003 0.003 0.002 0.013 0.017 0.011 0.009 0.005 0.003 0.001 0.001 0.002 0.003 0.003 0.003 0.003 0.002 0.003 0.003 0.004 0.005 0.005 0.006 0.006 0.007 0.005 0.006 0.004 0.003 0.003 0.002 0.003 0.002 0.004 0.002 0.003 0.002 0.002 0.003 0.002 0.003 0.004 0.003 0.003 0.003 0.004 0.005 0.004 0.003 0.004 0.003 0.002 0.001 0.001 0.001 0.002 0.003 0.003 0.003 0.003 0.003 0.007 0.006 0.006 0.005 0.003 0.002 0.001 0.001 0.002 0.003 0.003 0.003 0.003 0.002 0.002 0.003 0.004 0.005 0.005 0.005 0.005 0.004 0.003 0.003 0.002 0.002 0.001 0.002 0.001 0.002 0.003 0.003 0.004 0.004 0.004 0.004 0.003 0.002 0.002 0.001 0.002 0.002 0.002 0.002 0.002 0.002 0.003 0.003 0.003 0.003 0.002 0.002 0.001 0.002 0.002 0.002 0.002 0.002 0.002 0.002 0.002 0.002 0.002 0.002 0.002 0.002 0.003 0.003 0.003 
    </DataArray>
    <DataArray Name="Principal strain" type="Float32" Format="ascii">
    0.001 0.001 0.001 0.001 0.001 0.001 0.001 0.001 0.002 0.002 0.003 0.004 0.005 0.005 0.001 0.001 0.001 0.001 0.001 0.001 0.001 0.001 0.001 0.001 0.002 0.003 0.003 0.005 0.004 0.001 0.002 0.002 0.002 0.002 0.001 0.001 0.001 0.001 0.002 0.003 0.004 0.005 0.004 0.001 0.002 0.002 0.002 0.002 0.002 0.002 0.001 0.001 0.002 0.004 0.006 0.009 0.001 0.001 0.001 0.001 0.001 0.001 0.001 0.002 0.003 0.003 0.003 0.003 0.004 0.001 0.001 0.001 0.001 0.001 0.001 0.001 0.001 0.002 0.002 0.002 0.003 0.004 0.005 0.005 0.001 0.003 0.001 0.002 0.001 0.004 0.002 0.002 0.002 0.011 0.012 0.002 0.002 0.002 0.003 0.003 0.003 0.002 0.002 0.002 0.003 0.006 0.007 0.012 0.012 0.001 0.001 0.001 0.001 0.001 0.001 0.002 0.002 0.003 0.003 0.003 0.003 0.003 0.002 0.001 0.003 0.004 0.002 0.008 0.002 0.002 0.008 0.002 0.002 0.011 0.002 0.009 0.002 0.002 0.002 0.003 0.003 0.003 0.003 0.002 0.002 0.002 0.003 0.006 0.010 0.010 0.008 0.003 0.002 0.003 0.003 0.003 0.003 0.003 0.002 0.002 0.003 0.009 0.008 0.004 0.001 0.001 0.001 0.001 0.002 0.002 0.002 0.003 0.003 0.003 0.003 0.003 0.003 0.002 0.001 0.003 0.004 0.002 0.010 0.002 0.014 0.002 0.010 0.002 0.002 0.008 0.003 0.012 0.003 0.009 0.003 0.002 0.005 0.007 0.003 0.003 0.003 0.003 0.004 0.004 0.003 0.003 0.002 0.002 0.002 0.005 0.009 0.004 0.006 0.002 0.001 0.002 0.002 0.002 0.002 0.002 0.003 0.003 0.004 0.004 0.004 0.003 0.003 0.002 0.002 0.002 0.002 0.002 0.007 0.003 0.014 0.003 0.015 0.003 0.015 0.004 0.010 0.003 0.010 0.004 0.013 0.004 0.004 0.012 0.004 0.009 0.004 0.004 0.003 0.003 0.004 0.004 0.004 0.003 0.002 0.001 0.002 0.004 0.008 0.007 0.016 0.005 0.005 0.004 0.004 0.004 0.004 0.003 0.002 0.001 0.002 0.002 0.003 0.008 0.008 0.002 0.002 0.003 0.003 0.003 0.003 0.004 0.004 0.004 0.005 0.005 0.004 0.003 0.003 0.002 0.004 0.003 0.010 0.003 0.004 0.012 0.004 0.013 0.004 0.010 0.004 0.007 0.004 0.008 0.005 0.009 0.005 0.009 0.005 0.005 0.011 0.005 0.005 0.007 0.006 0.007 0.006 0.006 0.006 0.005 0.004 0.004 0.003 0.002 0.001 0.002 0.002 0.003 0.006 0.004 0.007 0.007 0.005 0.004 0.004 0.003 0.002 0.002 0.001 0.002 0.002 0.003 0.003 0.003 0.003 0.004 0.004 0.005 0.005 0.005 0.006 0.006 0.007 0.006 0.005 0.003 0.005 0.003 0.003 0.007 0.003 0.008 0.004 0.010 0.004 0.005 0.007 0.005 0.008 0.005 0.009 0.006 0.009 0.005 0.009 0.006 0.008 0.006 0.006 0.007 0.004 0.008 0.008 0.004 0.001 0.002 0.003 0.009 0.008 0.007 0.006 0.004 0.004 0.004 0.003 0.003 0.003 0.002 0.002 0.002 0.003 0.003 0.004 0.004 0.005 0.005 0.006 0.006 0.006 0.007 0.007 0.007 0.006 0.006 0.003 0.004 0.005 0.004 0.006 0.004 0.005 0.007 0.005 0.008 0.006 0.008 0.006 0.006 0.009 0.006 0.009 0.007 0.008 0.007 0.006 0.008 0.004 0.011 0.011 0.002 0.012 0.009 0.011 0.011 0.006 0.004 0.003 0.004 0.004 0.004 0.003 0.003 0.002 0.002 0.002 0.004 0.004 0.004 0.005 0.005 0.006 0.006 0.007 0.007 0.007 0.007 0.007 0.006 0.006 0.004 0.006 0.004 0.006 0.005 0.007 0.005 0.005 0.008 0.006 0.008 0.006 0.009 0.006 0.007 0.008 0.007 0.007 0.007 0.005 0.009 0.003 0.015 0.002 0.016 0.011 0.002 0.002 0.011 0.009 0.010 0.011 0.005 0.003 0.003 0.004 0.004 0.004 0.003 0.002 0.002 0.004 0.005 0.005 0.006 0.006 0.006 0.007 0.007 0.007 0.007 0.006 0.006 0.004 0.004 0.007 0.005 0.005 0.004 0.006 0.004 0.007 0.004 0.005 0.007 0.005 0.007 0.006 0.008 0.006 0.007 0.007 0.007 0.007 0.006 0.007 0.004 0.009 0.003 0.013 0.002 0.018 0.001 0.001 0.012 0.010 0.015 0.010 0.004 0.003 0.003 0.004 0.004 0.004 0.004 0.003 0.002 0.002 0.003 0.004 0.004 0.005 0.005 0.005 0.006 0.006 0.006 0.006 0.006 0.005 0.005 0.004 0.004 0.004 0.003 0.005 0.004 0.005 0.004 0.005 0.004 0.006 0.005 0.007 0.005 0.007 0.006 0.006 0.006 0.005 0.007 0.009 0.003 0.016 0.001 0.014 0.001 0.014 0.011 0.015 0.008 0.004 0.002 0.003 0.004 0.004 0.004 0.003 0.002 0.002 0.003 0.004 0.004 0.005 0.005 0.005 0.006 0.006 0.006 0.005 0.005 0.004 0.003 0.003 0.003 0.003 0.004 0.003 0.004 0.003 0.004 0.003 0.006 0.004 0.006 0.004 0.006 0.004 0.005 0.005 0.004 0.005 0.004 0.006 0.002 0.008 0.002 0.013 0.001 0.001 0.012 0.012 0.015 0.013 0.009 0.004 0.002 0.002 0.003 0.004 0.003 0.003 0.003 0.002 0.001 0.003 0.003 0.004 0.004 0.004 0.005 0.005 0.005 0.005 0.005 0.005 0.004 0.004 0.003 0.003 0.003 0.003 0.003 0.003 0.003 0.004 0.003 0.003 0.005 0.003 0.005 0.003 0.005 0.003 0.004 0.004 0.003 0.006 0.006 0.002 0.008 0.008 0.001 0.002 0.013 0.010 0.011 0.007 0.005 0.003 0.001 0.001 0.002 0.003 0.003 0.003 0.002 0.002 0.013 0.009 0.006 0.003 0.002 0.001 0.002 0.003 0.003 0.003 0.003 0.002 0.003 0.003 0.003 0.004 0.004 0.004 0.004 0.005 0.005 0.005 0.004 0.004 0.003 0.003 0.003 0.002 0.004 0.003 0.003 0.002 0.003 0.002 0.002 0.004 0.002 0.004 0.002 0.003 0.003 0.003 0.003 0.004 0.004 0.005 0.003 0.003 0.002 0.001 0.001 0.001 0.002 0.003 0.003 0.003 0.003 0.002 0.006 0.007 0.005 0.004 0.002 0.002 0.001 0.001 0.002 0.003 0.003 0.003 0.003 0.002 0.002 0.002 0.003 0.003 0.003 0.003 0.004 0.004 0.003 0.004 0.003 0.002 0.002 0.001 0.002 0.002 0.003 0.002 0.003 0.001 0.001 0.002 0.001 0.002 0.003 0.002 0.001 0.003 0.003 0.002 0.002 0.002 0.002 0.002 0.001 0.001 0.001 0.001 0.002 0.002 0.003 0.003 0.003 0.003 0.003 0.002 0.002 0.002 0.002 0.001 0.001 0.001 0.002 0.003 0.003 0.003 0.003 0.001 0.002 0.002 0.002 0.002 0.002 0.003 0.003 0.002 0.002 0.002 0.001 0.001 0.001 0.001 0.001 0.001 0.002 0.002 0.002 0.002 0.002 0.002 0.002 0.001 0.001 0.001 0.001 0.001 0.001 0.001 0.001 0.002 0.002 0.002 0.002 0.002 0.001 0.001 0.001 0.002 0.002 0.002 0.002 0.001 0.002 0.002 0.002 0.002 0.001 0.001 0.001 0.002 0.002 0.003 0.003 
    </DataArray>
    <DataArray Name="von Mises strain" type="Float32" Format="ascii">